
     Program PWSCF v.7.1 starts on 14Oct2023 at 15:32: 5 

     This program is part of the open-source Quantum ESPRESSO suite
     for quantum simulation of materials; please cite
         "P. Giannozzi et al., J. Phys.:Condens. Matter 21 395502 (2009);
         "P. Giannozzi et al., J. Phys.:Condens. Matter 29 465901 (2017);
         "P. Giannozzi et al., J. Chem. Phys. 152 154105 (2020);
          URL http://www.quantum-espresso.org", 
     in publications or presentations arising from this work. More details at
     http://www.quantum-espresso.org/quote

     Parallel version (MPI & OpenMP), running on      32 processor cores
     Number of MPI processes:                 4
     Threads/MPI process:                     8

     MPI processes distributed on     1 nodes
     0 MiB available memory on the printing compute node when the environment starts

     Waiting for input...
     Reading input from standard input

     Current dimensions of program PWSCF are:
     Max number of different atomic species (ntypx) = 10
     Max number of k-points (npk) =  40000
     Max angular momentum in pseudopotentials (lmaxx) =  4
     file Si.pbe-n-kjpaw_psl.1.0.0.UPF: wavefunction(s)  3S 3P renormalized
     file O.pbe-n-kjpaw_psl.1.0.0.UPF: wavefunction(s)  2S 2P renormalized
     Message from routine setup:
     using ibrav=0 with symmetry is DISCOURAGED, use correct ibrav instead

     R & G space division:  proc/nbgrp/npool/nimage =       4
     Subspace diagonalization in iterative solution of the eigenvalue problem:
     a serial algorithm will be used


     Parallelization info
     --------------------
     sticks:   dense  smooth     PW     G-vecs:    dense   smooth      PW
     Min         595     297     78                25785     9085    1316
     Max         596     298     79                25790     9088    1321
     Sum        2383    1189    313               103151    36345    5269

     Using Slab Decomposition



     bravais-lattice index     =            0
     lattice parameter (alat)  =       9.2861  a.u.
     unit-cell volume          =     762.9105 (a.u.)^3
     number of atoms/cell      =            9
     number of atomic types    =            2
     number of electrons       =        48.00
     number of Kohn-Sham states=           24
     kinetic-energy cutoff     =      50.0000  Ry
     charge density cutoff     =     400.0000  Ry
     scf convergence threshold =      1.0E-06
     mixing beta               =       0.7000
     number of iterations used =            8  plain     mixing
     Exchange-correlation= SLA  PW   PBX  PBC
                           (   1   4   3   4   0   0   0)

     celldm(1)=   9.286114  celldm(2)=   0.000000  celldm(3)=   0.000000
     celldm(4)=   0.000000  celldm(5)=   0.000000  celldm(6)=   0.000000

     crystal axes: (cart. coord. in units of alat)
               a(1) = (   0.866025  -0.500000   0.000000 )  
               a(2) = (   0.000000   1.000000   0.000000 )  
               a(3) = (   0.000000   0.000000   1.100122 )  

     reciprocal axes: (cart. coord. in units 2 pi/alat)
               b(1) = (  1.154701  0.000000  0.000000 )  
               b(2) = (  0.577350  1.000000 -0.000000 )  
               b(3) = ( -0.000000  0.000000  0.908990 )  


     PseudoPot. # 1 for Si read from file:
     ./pp/Si.pbe-n-kjpaw_psl.1.0.0.UPF
     MD5 check sum: c39c59da582df4a0d9f10159256ea34e
     Pseudo is Projector augmented-wave + core cor, Zval =  4.0
     Generated using &quot;atomic&quot; code by A. Dal Corso  v.6.3
     Shape of augmentation charge: PSQ
     Using radial grid of 1141 points,  6 beta functions with: 
                l(1) =   0
                l(2) =   0
                l(3) =   1
                l(4) =   1
                l(5) =   2
                l(6) =   2
     Q(r) pseudized with 0 coefficients 


     PseudoPot. # 2 for O  read from file:
     ./pp/O.pbe-n-kjpaw_psl.1.0.0.UPF
     MD5 check sum: e99d9cef9b487d1ca56f5b95ecd0fd7a
     Pseudo is Projector augmented-wave + core cor, Zval =  6.0
     Generated using &quot;atomic&quot; code by A. Dal Corso  v.6.3
     Shape of augmentation charge: PSQ
     Using radial grid of 1095 points,  4 beta functions with: 
                l(1) =   0
                l(2) =   0
                l(3) =   1
                l(4) =   1
     Q(r) pseudized with 0 coefficients 


     atomic species   valence    mass     pseudopotential
        Si             4.00    28.08500     Si( 1.00)
        O              6.00    15.99900     O ( 1.00)

      6 Sym. Ops. (no inversion) found ( 4 have fractional translation)



   Cartesian axes

     site n.     atom                  positions (alat units)
         1           Si  tau(   1) = (   0.4069453  -0.2349500   0.3667074  )
         2           Si  tau(   2) = (   0.4590801   0.2650500   0.0000000  )
         3           Si  tau(   3) = (   0.0000000   0.4699000   0.7334147  )
         4           O   tau(   4) = (   0.3576685   0.0603000   0.2354261  )
         5           O   tau(   5) = (   0.5083569   0.5603000   0.1312812  )
         6           O   tau(   6) = (   0.1266129   0.6601000   0.4979886  )
         7           O   tau(   7) = (   0.6349698  -0.2204000   0.6021335  )
         8           O   tau(   8) = (   0.7394125   0.1601000   0.9688409  )
         9           O   tau(   9) = (   0.2310556   0.2796000   0.8646960  )

     number of k points=     3
                       cart. coord. in units 2pi/alat
        k(    1) = (   0.4330127   0.2500000   0.2272475), wk =   1.0000000
        k(    2) = (   0.1443376  -0.2500000   0.2272475), wk =   0.5000000
        k(    3) = (  -0.1443376   0.2500000   0.2272475), wk =   0.5000000

     Dense  grid:   103151 G-vectors     FFT dimensions: (  60,  60,  72)

     Smooth grid:    36345 G-vectors     FFT dimensions: (  45,  45,  45)

     Estimated max dynamical RAM per process >      98.04 MB

     Estimated total dynamical RAM >     392.15 MB

     Check: negative core charge=   -0.000002

     Initial potential from superposition of free atoms

     starting charge      47.9983, renormalised to      48.0000
     Starting wfcs are   36 randomized atomic wfcs
     Checking if some PAW data can be deallocated... 

     total cpu time spent up to now is       36.3 secs

     Self-consistent Calculation

     iteration #  1     ecut=    50.00 Ry     beta= 0.70
     Davidson diagonalization with overlap
     ethr =  1.00E-02,  avg # of iterations =  2.0

     total cpu time spent up to now is       91.2 secs

     total energy              =    -389.08176726 Ry
     estimated scf accuracy    <       2.91326038 Ry

     iteration #  2     ecut=    50.00 Ry     beta= 0.70
     Davidson diagonalization with overlap
     ethr =  6.07E-03,  avg # of iterations =  6.7

     total cpu time spent up to now is      164.3 secs

     total energy              =    -390.90706542 Ry
     estimated scf accuracy    <       1.10592903 Ry

     iteration #  3     ecut=    50.00 Ry     beta= 0.70
     Davidson diagonalization with overlap
     ethr =  2.30E-03,  avg # of iterations =  2.0

     total cpu time spent up to now is      225.1 secs

     total energy              =    -390.87011542 Ry
     estimated scf accuracy    <       0.30522763 Ry

     iteration #  4     ecut=    50.00 Ry     beta= 0.70
     Davidson diagonalization with overlap
     ethr =  6.36E-04,  avg # of iterations =  5.7

     total cpu time spent up to now is      301.1 secs

     total energy              =    -391.09189164 Ry
     estimated scf accuracy    <       0.08655543 Ry

     iteration #  5     ecut=    50.00 Ry     beta= 0.70
     Davidson diagonalization with overlap
     ethr =  1.80E-04,  avg # of iterations =  6.7

     total cpu time spent up to now is      367.7 secs

     total energy              =    -391.13574841 Ry
     estimated scf accuracy    <       0.05125837 Ry

     iteration #  6     ecut=    50.00 Ry     beta= 0.70
     Davidson diagonalization with overlap
     ethr =  1.07E-04,  avg # of iterations =  2.0

     total cpu time spent up to now is      420.2 secs

     total energy              =    -391.12781391 Ry
     estimated scf accuracy    <       0.01961263 Ry

     iteration #  7     ecut=    50.00 Ry     beta= 0.70
     Davidson diagonalization with overlap
     ethr =  4.09E-05,  avg # of iterations =  4.3

     total cpu time spent up to now is      472.7 secs

     total energy              =    -391.13686303 Ry
     estimated scf accuracy    <       0.00014322 Ry

     iteration #  8     ecut=    50.00 Ry     beta= 0.70
     Davidson diagonalization with overlap
     ethr =  2.98E-07,  avg # of iterations = 13.0

     total cpu time spent up to now is      604.1 secs

     total energy              =    -391.13889476 Ry
     estimated scf accuracy    <       0.00068748 Ry

     iteration #  9     ecut=    50.00 Ry     beta= 0.70
     Davidson diagonalization with overlap
     ethr =  2.98E-07,  avg # of iterations =  2.0

     total cpu time spent up to now is      661.9 secs

     total energy              =    -391.13863160 Ry
     estimated scf accuracy    <       0.00036468 Ry

     iteration # 10     ecut=    50.00 Ry     beta= 0.70
     Davidson diagonalization with overlap
     ethr =  2.98E-07,  avg # of iterations = 12.0

     total cpu time spent up to now is      782.2 secs

     total energy              =    -391.13899513 Ry
     estimated scf accuracy    <       0.00046389 Ry

     iteration # 11     ecut=    50.00 Ry     beta= 0.70
     Davidson diagonalization with overlap
     ethr =  2.98E-07,  avg # of iterations =  2.0

     total cpu time spent up to now is      823.2 secs

     total energy              =    -391.13878622 Ry
     estimated scf accuracy    <       0.00040611 Ry

     iteration # 12     ecut=    50.00 Ry     beta= 0.70
     Davidson diagonalization with overlap
     ethr =  2.98E-07,  avg # of iterations =  5.0

     total cpu time spent up to now is      890.1 secs

     total energy              =    -391.13885399 Ry
     estimated scf accuracy    <       0.00001207 Ry

     iteration # 13     ecut=    50.00 Ry     beta= 0.70
     Davidson diagonalization with overlap
     ethr =  2.51E-08,  avg # of iterations =  6.7

     total cpu time spent up to now is      947.3 secs

     End of self-consistent calculation

          k = 0.4330 0.2500 0.2272 (  4548 PWs)   bands (ev):

   -16.4013 -15.9396 -15.4013 -14.8055 -14.7877 -14.7422  -5.8077  -4.6953
    -3.8312  -2.8522  -2.5557  -2.2624  -0.6689  -0.3882  -0.1601   0.3032
     0.5501   0.7543   1.1213   1.3083   1.5426   1.8373   2.0913   2.3713

          k = 0.1443-0.2500 0.2272 (  4550 PWs)   bands (ev):

   -16.6394 -15.9308 -15.1343 -14.7829 -14.7648 -14.7241  -6.1817  -4.7460
    -3.4282  -2.9123  -2.6195  -2.4159  -0.6710  -0.2079  -0.0603   0.2478
     0.5408   0.8986   1.0111   1.2433   1.5951   1.7918   2.2157   2.4144

          k =-0.1443 0.2500 0.2272 (  4550 PWs)   bands (ev):

   -16.6416 -15.9203 -15.1586 -14.7805 -14.7396 -14.7352  -6.1840  -4.7474
    -3.4288  -2.9315  -2.6400  -2.3519  -0.6284  -0.1582  -0.1191   0.1166
     0.4864   1.0090   1.0792   1.2241   1.6566   1.7078   2.1299   2.4960

     highest occupied level (ev):     2.4960

!    total energy              =    -391.13886677 Ry
     total all-electron energy =     -2644.257803 Ry
     estimated scf accuracy    <       0.00000037 Ry

     The total energy is the sum of the following terms:
     one-electron contribution =    -101.55657565 Ry
     hartree contribution      =      78.21755821 Ry
     xc contribution           =     -64.64891856 Ry
     ewald contribution        =    -138.99781578 Ry
     one-center paw contrib.   =    -164.15311500 Ry

     convergence has been achieved in  13 iterations

     Writing all to output data dir ../tmp/quartz_alpha.save/

     init_run     :     36.50s CPU     35.99s WALL (       1 calls)
     electrons    :   1602.13s CPU    911.05s WALL (       1 calls)

     Called by init_run:
     wfcinit      :     10.09s CPU      5.86s WALL (       1 calls)
     potinit      :      0.65s CPU      0.39s WALL (       1 calls)
     hinit0       :      0.60s CPU      0.54s WALL (       1 calls)

     Called by electrons:
     c_bands      :    823.29s CPU    480.19s WALL (      13 calls)
     sum_band     :     52.31s CPU     31.13s WALL (      13 calls)
     v_of_rho     :      0.67s CPU      0.59s WALL (      14 calls)
     newd         :    743.75s CPU    423.55s WALL (      14 calls)
     PAW_pot      :      7.51s CPU      4.82s WALL (      14 calls)
     mix_rho      :      0.07s CPU      0.09s WALL (      13 calls)

     Called by c_bands:
     init_us_2    :      0.06s CPU      0.07s WALL (      81 calls)
     init_us_2:cp :      0.06s CPU      0.07s WALL (      81 calls)
     cegterg      :    823.01s CPU    479.90s WALL (      39 calls)

     Called by *egterg:
     cdiaghg      :      0.59s CPU      1.74s WALL (     249 calls)
     h_psi        :    321.88s CPU    191.54s WALL (     252 calls)
     s_psi        :     28.09s CPU     13.37s WALL (     252 calls)
     g_psi        :      0.02s CPU      0.90s WALL (     210 calls)

     Called by h_psi:
     h_psi:calbec :    279.24s CPU    155.59s WALL (     252 calls)
     vloc_psi     :      6.31s CPU     13.75s WALL (     252 calls)
     add_vuspsi   :     36.31s CPU     22.13s WALL (     252 calls)

     General routines
     calbec       :    325.80s CPU    180.73s WALL (     291 calls)
     fft          :      0.41s CPU      0.41s WALL (     180 calls)
     ffts         :      0.03s CPU      0.03s WALL (      27 calls)
     fftw         :      6.24s CPU      8.34s WALL (    9480 calls)
     interpolate  :      0.04s CPU      0.05s WALL (      14 calls)

     Parallel routines

     PWSCF        :  27m18.92s CPU  15m47.37s WALL


   This run was terminated on:  15:47:52  14Oct2023            

=------------------------------------------------------------------------------=
   JOB DONE.
=------------------------------------------------------------------------------=
